
     Program PWSCF v.5.3.0 (svn rev. 11974) starts on 20Apr2016 at 10:45:27 

     This program is part of the open-source Quantum ESPRESSO suite
     for quantum simulation of materials; please cite
         "P. Giannozzi et al., J. Phys.:Condens. Matter 21 395502 (2009);
          URL http://www.quantum-espresso.org", 
     in publications or presentations arising from this work. More details at
     http://www.quantum-espresso.org/quote

     Parallel version (MPI), running on    20 processors
     R & G space division:  proc/nbgrp/npool/nimage =      20
     Reading input from graphene.scf8.in

     Current dimensions of program PWSCF are:
     Max number of different atomic species (ntypx) = 10
     Max number of k-points (npk) =  40000
     Max angular momentum in pseudopotentials (lmaxx) =  3
               file C.pbe-rrkjus.UPF: wavefunction(s)  2S 2P renormalized

     Subspace diagonalization in iterative solution of the eigenvalue problem:
     a serial algorithm will be used


     Parallelization info
     --------------------
     sticks:   dense  smooth     PW     G-vecs:    dense   smooth      PW
     Min          54      18      6                 5910     1126     192
     Max          55      19      7                 5925     1163     202
     Sum        1099     367    121               118319    22803    3963



     bravais-lattice index     =            4
     lattice parameter (alat)  =       4.7098  a.u.
     unit-cell volume          =     363.0178 (a.u.)^3
     number of atoms/cell      =            2
     number of atomic types    =            1
     number of electrons       =         8.00
     number of Kohn-Sham states=            8
     kinetic-energy cutoff     =      60.0000  Ry
     charge density cutoff     =     720.0000  Ry
     convergence threshold     =      1.0E-10
     mixing beta               =       0.7000
     number of iterations used =            8  plain     mixing
     Exchange-correlation      =  SLA  PW   PBE  PBE ( 1  4  3  4 0 0)

     celldm(1)=   4.709764  celldm(2)=   0.000000  celldm(3)=   4.012358
     celldm(4)=   0.000000  celldm(5)=   0.000000  celldm(6)=   0.000000

     crystal axes: (cart. coord. in units of alat)
               a(1) = (   1.000000   0.000000   0.000000 )  
               a(2) = (  -0.500000   0.866025   0.000000 )  
               a(3) = (   0.000000   0.000000   4.012358 )  

     reciprocal axes: (cart. coord. in units 2 pi/alat)
               b(1) = (  1.000000  0.577350 -0.000000 )  
               b(2) = (  0.000000  1.154701  0.000000 )  
               b(3) = (  0.000000 -0.000000  0.249230 )  


     PseudoPot. # 1 for C  read from file:
     ./C.pbe-rrkjus.UPF
     MD5 check sum: 00fb224312de0c5b6853bd333518df6f
     Pseudo is Ultrasoft, Zval =  4.0
     Generated by new atomic code, or converted to UPF format
     Using radial grid of  627 points,  4 beta functions with: 
                l(1) =   0
                l(2) =   0
                l(3) =   1
                l(4) =   1
     Q(r) pseudized with 0 coefficients 


     atomic species   valence    mass     pseudopotential
        C              4.00    12.01070     C ( 1.00)

     24 Sym. Ops., with inversion, found



   Cartesian axes

     site n.     atom                  positions (alat units)
         1           C   tau(   1) = (   0.0000000   0.5773503   2.0061790  )
         2           C   tau(   2) = (   0.5000000   0.2886751   2.0061790  )

     number of k points=   169  Methfessel-Paxton smearing, width (Ry)=  0.0200

     Number of k-points >= 100: set verbosity='high' to print them.

     Dense  grid:   118319 G-vectors     FFT dimensions: (  45,  45, 162)

     Smooth grid:    22803 G-vectors     FFT dimensions: (  24,  24,  96)

     Largest allocated arrays     est. size (Mb)     dimensions
        Kohn-Sham Wavefunctions         0.02 Mb     (     149,    8)
        NL pseudopotentials             0.04 Mb     (     149,   16)
        Each V/rho on FFT grid          0.28 Mb     (   18225)
        Each G-vector array             0.05 Mb     (    5913)
        G-vector shells                 0.02 Mb     (    2746)
     Largest temporary arrays     est. size (Mb)     dimensions
        Each subspace H/S matrix        0.00 Mb     (       8,    8)
        Each <psi_i|beta_j> matrix      0.00 Mb     (      16,    8)
        Arrays for rho mixing           2.22 Mb     (   18225,    8)

     Initial potential from superposition of free atoms

     starting charge    7.99989, renormalised to    8.00000

     negative rho (up, down):  2.847E-07 0.000E+00
     Starting wfc are    8 randomized atomic wfcs

     total cpu time spent up to now is        0.6 secs

     per-process dynamical memory:     7.6 Mb

     Self-consistent Calculation

     iteration #  1     ecut=    60.00 Ry     beta=0.70
     CG style diagonalization
     ethr =  1.00E-02,  avg # of iterations =  3.9

     total cpu time spent up to now is        3.1 secs

     total energy              =     -22.75557090 Ry
     Harris-Foulkes estimate   =     -22.87089983 Ry
     estimated scf accuracy    <       0.19308995 Ry

     iteration #  2     ecut=    60.00 Ry     beta=0.70
     CG style diagonalization
     ethr =  2.41E-03,  avg # of iterations =  3.9

     total cpu time spent up to now is        5.2 secs

     total energy              =     -22.78901121 Ry
     Harris-Foulkes estimate   =     -22.78965203 Ry
     estimated scf accuracy    <       0.00328067 Ry

     iteration #  3     ecut=    60.00 Ry     beta=0.70
     CG style diagonalization
     c_bands:  1 eigenvalues not converged
     c_bands:  1 eigenvalues not converged
     c_bands:  2 eigenvalues not converged
     c_bands:  1 eigenvalues not converged
     c_bands:  1 eigenvalues not converged
     c_bands:  2 eigenvalues not converged
     c_bands:  1 eigenvalues not converged
     c_bands:  1 eigenvalues not converged
     ethr =  4.10E-05,  avg # of iterations =  5.5

     negative rho (up, down):  6.046E-07 0.000E+00

     total cpu time spent up to now is        8.2 secs

     total energy              =     -22.78974193 Ry
     Harris-Foulkes estimate   =     -22.78974308 Ry
     estimated scf accuracy    <       0.00020069 Ry

     iteration #  4     ecut=    60.00 Ry     beta=0.70
     CG style diagonalization
     c_bands:  1 eigenvalues not converged
     c_bands:  1 eigenvalues not converged
     c_bands:  1 eigenvalues not converged
     c_bands:  1 eigenvalues not converged
     c_bands:  1 eigenvalues not converged
     c_bands:  1 eigenvalues not converged
     ethr =  2.51E-06,  avg # of iterations =  4.4

     negative rho (up, down):  9.174E-07 0.000E+00

     total cpu time spent up to now is       10.6 secs

     total energy              =     -22.78976095 Ry
     Harris-Foulkes estimate   =     -22.78976185 Ry
     estimated scf accuracy    <       0.00000390 Ry

     iteration #  5     ecut=    60.00 Ry     beta=0.70
     CG style diagonalization
     ethr =  4.87E-08,  avg # of iterations =  3.5

     negative rho (up, down):  9.795E-07 0.000E+00

     total cpu time spent up to now is       12.5 secs

     total energy              =     -22.78976188 Ry
     Harris-Foulkes estimate   =     -22.78976187 Ry
     estimated scf accuracy    <       0.00000007 Ry

     iteration #  6     ecut=    60.00 Ry     beta=0.70
     CG style diagonalization
     ethr =  8.31E-10,  avg # of iterations =  3.5

     negative rho (up, down):  9.912E-07 0.000E+00

     total cpu time spent up to now is       14.3 secs

     total energy              =     -22.78976189 Ry
     Harris-Foulkes estimate   =     -22.78976190 Ry
     estimated scf accuracy    <          8.7E-09 Ry

     iteration #  7     ecut=    60.00 Ry     beta=0.70
     CG style diagonalization
     ethr =  1.09E-10,  avg # of iterations =  3.3

     negative rho (up, down):  9.953E-07 0.000E+00

     total cpu time spent up to now is       16.0 secs

     End of self-consistent calculation

     Number of k-points >= 100: set verbosity='high' to print the bands.

     the Fermi energy is    -0.6069 ev

!    total energy              =     -22.78976190 Ry
     Harris-Foulkes estimate   =     -22.78976189 Ry
     estimated scf accuracy    <          8.4E-11 Ry

     The total energy is the sum of the following terms:

     one-electron contribution =     -88.69489024 Ry
     hartree contribution      =      46.05208940 Ry
     xc contribution           =      -6.97017614 Ry
     ewald contribution        =      26.82319104 Ry
     smearing contrib. (-TS)   =       0.00002404 Ry

     convergence has been achieved in   7 iterations

     Writing output data file graphene.save

     init_run     :      0.55s CPU      0.57s WALL (       1 calls)
     electrons    :     15.15s CPU     15.49s WALL (       1 calls)

     Called by init_run:
     wfcinit      :      0.34s CPU      0.36s WALL (       1 calls)
     potinit      :      0.07s CPU      0.07s WALL (       1 calls)

     Called by electrons:
     c_bands      :     13.74s CPU     13.99s WALL (       7 calls)
     sum_band     :      1.21s CPU      1.23s WALL (       7 calls)
     v_of_rho     :      0.13s CPU      0.13s WALL (       8 calls)
     newd         :      0.06s CPU      0.06s WALL (       8 calls)
     mix_rho      :      0.01s CPU      0.01s WALL (       7 calls)

     Called by c_bands:
     init_us_2    :      0.05s CPU      0.11s WALL (    2535 calls)
     ccgdiagg     :     11.53s CPU     12.04s WALL (    1183 calls)
     wfcrot       :      2.04s CPU      2.12s WALL (    1183 calls)

     Called by sum_band:
     sum_band:bec :      0.00s CPU      0.00s WALL (    1183 calls)
     addusdens    :      0.06s CPU      0.06s WALL (       7 calls)

     Called by *cgdiagg:
     h_psi        :      6.17s CPU      8.66s WALL (   30884 calls)
     s_psi        :      0.13s CPU      0.27s WALL (   60585 calls)
     cdiaghg      :      0.09s CPU      0.08s WALL (    1183 calls)

     Called by h_psi:
     add_vuspsi   :      0.08s CPU      0.17s WALL (   30884 calls)
     h_1psi       :      4.44s CPU      7.07s WALL (   29701 calls)

     General routines
     calbec       :      2.85s CPU      1.81s WALL (   61768 calls)
     fft          :      0.12s CPU      0.13s WALL (     123 calls)
     ffts         :      0.00s CPU      0.00s WALL (      15 calls)
     fftw         :      4.16s CPU      7.17s WALL (   87794 calls)
     interpolate  :      0.01s CPU      0.01s WALL (      15 calls)
     davcio       :      0.00s CPU      0.00s WALL (     169 calls)

     Parallel routines
     fft_scatter  :      2.04s CPU      3.35s WALL (   87932 calls)

     PWSCF        :    16.08s CPU        19.69s WALL


   This run was terminated on:  10:45:46  20Apr2016            

=------------------------------------------------------------------------------=
   JOB DONE.
=------------------------------------------------------------------------------=
