
     Program PWSCF v.5.3.0 (svn rev. 11974) starts on 20Apr2016 at 10:43:26 

     This program is part of the open-source Quantum ESPRESSO suite
     for quantum simulation of materials; please cite
         "P. Giannozzi et al., J. Phys.:Condens. Matter 21 395502 (2009);
          URL http://www.quantum-espresso.org", 
     in publications or presentations arising from this work. More details at
     http://www.quantum-espresso.org/quote

     Parallel version (MPI), running on    20 processors
     R & G space division:  proc/nbgrp/npool/nimage =      20
     Reading input from graphene.scf2.in

     Current dimensions of program PWSCF are:
     Max number of different atomic species (ntypx) = 10
     Max number of k-points (npk) =  40000
     Max angular momentum in pseudopotentials (lmaxx) =  3
               file C.pbe-rrkjus.UPF: wavefunction(s)  2S 2P renormalized

     Subspace diagonalization in iterative solution of the eigenvalue problem:
     a serial algorithm will be used


     Parallelization info
     --------------------
     sticks:   dense  smooth     PW     G-vecs:    dense   smooth      PW
     Min          51      17      5                 5613     1069     183
     Max          52      18      6                 5640     1092     194
     Sum        1039     349    109               112715    21657    3773



     bravais-lattice index     =            4
     lattice parameter (alat)  =       4.5964  a.u.
     unit-cell volume          =     345.7495 (a.u.)^3
     number of atoms/cell      =            2
     number of atomic types    =            1
     number of electrons       =         8.00
     number of Kohn-Sham states=            8
     kinetic-energy cutoff     =      60.0000  Ry
     charge density cutoff     =     720.0000  Ry
     convergence threshold     =      1.0E-10
     mixing beta               =       0.7000
     number of iterations used =            8  plain     mixing
     Exchange-correlation      =  SLA  PW   PBE  PBE ( 1  4  3  4 0 0)

     celldm(1)=   4.596381  celldm(2)=   0.000000  celldm(3)=   4.111335
     celldm(4)=   0.000000  celldm(5)=   0.000000  celldm(6)=   0.000000

     crystal axes: (cart. coord. in units of alat)
               a(1) = (   1.000000   0.000000   0.000000 )  
               a(2) = (  -0.500000   0.866025   0.000000 )  
               a(3) = (   0.000000   0.000000   4.111335 )  

     reciprocal axes: (cart. coord. in units 2 pi/alat)
               b(1) = (  1.000000  0.577350 -0.000000 )  
               b(2) = (  0.000000  1.154701  0.000000 )  
               b(3) = (  0.000000 -0.000000  0.243230 )  


     PseudoPot. # 1 for C  read from file:
     ./C.pbe-rrkjus.UPF
     MD5 check sum: 00fb224312de0c5b6853bd333518df6f
     Pseudo is Ultrasoft, Zval =  4.0
     Generated by new atomic code, or converted to UPF format
     Using radial grid of  627 points,  4 beta functions with: 
                l(1) =   0
                l(2) =   0
                l(3) =   1
                l(4) =   1
     Q(r) pseudized with 0 coefficients 


     atomic species   valence    mass     pseudopotential
        C              4.00    12.01070     C ( 1.00)

     24 Sym. Ops., with inversion, found



   Cartesian axes

     site n.     atom                  positions (alat units)
         1           C   tau(   1) = (   0.0000000   0.5773503   2.0556675  )
         2           C   tau(   2) = (   0.5000000   0.2886751   2.0556675  )

     number of k points=   169  Methfessel-Paxton smearing, width (Ry)=  0.0200

     Number of k-points >= 100: set verbosity='high' to print them.

     Dense  grid:   112715 G-vectors     FFT dimensions: (  40,  40, 162)

     Smooth grid:    21657 G-vectors     FFT dimensions: (  24,  24,  96)

     Largest allocated arrays     est. size (Mb)     dimensions
        Kohn-Sham Wavefunctions         0.02 Mb     (     148,    8)
        NL pseudopotentials             0.04 Mb     (     148,   16)
        Each V/rho on FFT grid          0.22 Mb     (   14400)
        Each G-vector array             0.04 Mb     (    5640)
        G-vector shells                 0.02 Mb     (    2485)
     Largest temporary arrays     est. size (Mb)     dimensions
        Each subspace H/S matrix        0.00 Mb     (       8,    8)
        Each <psi_i|beta_j> matrix      0.00 Mb     (      16,    8)
        Arrays for rho mixing           1.76 Mb     (   14400,    8)

     Initial potential from superposition of free atoms

     starting charge    7.99989, renormalised to    8.00000

     negative rho (up, down):  2.699E-07 0.000E+00
     Starting wfc are    8 randomized atomic wfcs

     total cpu time spent up to now is        0.6 secs

     per-process dynamical memory:     7.1 Mb

     Self-consistent Calculation

     iteration #  1     ecut=    60.00 Ry     beta=0.70
     CG style diagonalization
     ethr =  1.00E-02,  avg # of iterations =  4.1

     total cpu time spent up to now is        3.0 secs

     total energy              =     -22.74753903 Ry
     Harris-Foulkes estimate   =     -22.89134749 Ry
     estimated scf accuracy    <       0.23516120 Ry

     iteration #  2     ecut=    60.00 Ry     beta=0.70
     CG style diagonalization
     ethr =  2.94E-03,  avg # of iterations =  3.8

     total cpu time spent up to now is        5.0 secs

     total energy              =     -22.78874044 Ry
     Harris-Foulkes estimate   =     -22.78946376 Ry
     estimated scf accuracy    <       0.00361667 Ry

     iteration #  3     ecut=    60.00 Ry     beta=0.70
     CG style diagonalization
     c_bands:  1 eigenvalues not converged
     c_bands:  1 eigenvalues not converged
     c_bands:  1 eigenvalues not converged
     c_bands:  1 eigenvalues not converged
     ethr =  4.52E-05,  avg # of iterations =  5.6

     negative rho (up, down):  5.869E-07 0.000E+00

     total cpu time spent up to now is        8.1 secs

     total energy              =     -22.78964068 Ry
     Harris-Foulkes estimate   =     -22.78963676 Ry
     estimated scf accuracy    <       0.00020045 Ry

     iteration #  4     ecut=    60.00 Ry     beta=0.70
     CG style diagonalization
     c_bands:  1 eigenvalues not converged
     c_bands:  1 eigenvalues not converged
     c_bands:  1 eigenvalues not converged
     c_bands:  2 eigenvalues not converged
     c_bands:  1 eigenvalues not converged
     c_bands:  1 eigenvalues not converged
     c_bands:  1 eigenvalues not converged
     c_bands:  1 eigenvalues not converged
     c_bands:  2 eigenvalues not converged
     c_bands:  1 eigenvalues not converged
     c_bands:  1 eigenvalues not converged
     c_bands:  1 eigenvalues not converged
     c_bands:  1 eigenvalues not converged
     c_bands:  1 eigenvalues not converged
     ethr =  2.51E-06,  avg # of iterations =  4.5

     negative rho (up, down):  9.570E-07 0.000E+00

     total cpu time spent up to now is       10.5 secs

     total energy              =     -22.78966118 Ry
     Harris-Foulkes estimate   =     -22.78966226 Ry
     estimated scf accuracy    <       0.00000479 Ry

     iteration #  5     ecut=    60.00 Ry     beta=0.70
     CG style diagonalization
     c_bands:  1 eigenvalues not converged
     ethr =  5.99E-08,  avg # of iterations =  3.5

     negative rho (up, down):  1.018E-06 0.000E+00

     total cpu time spent up to now is       12.3 secs

     total energy              =     -22.78966227 Ry
     Harris-Foulkes estimate   =     -22.78966226 Ry
     estimated scf accuracy    <       0.00000005 Ry

     iteration #  6     ecut=    60.00 Ry     beta=0.70
     CG style diagonalization
     c_bands:  1 eigenvalues not converged
     ethr =  6.23E-10,  avg # of iterations =  3.5

     negative rho (up, down):  1.030E-06 0.000E+00

     total cpu time spent up to now is       14.1 secs

     total energy              =     -22.78966229 Ry
     Harris-Foulkes estimate   =     -22.78966229 Ry
     estimated scf accuracy    <          5.2E-09 Ry

     iteration #  7     ecut=    60.00 Ry     beta=0.70
     CG style diagonalization
     ethr =  6.54E-11,  avg # of iterations =  3.3

     negative rho (up, down):  1.034E-06 0.000E+00

     total cpu time spent up to now is       15.8 secs

     End of self-consistent calculation

     Number of k-points >= 100: set verbosity='high' to print the bands.

     the Fermi energy is    -0.2816 ev

!    total energy              =     -22.78966229 Ry
     Harris-Foulkes estimate   =     -22.78966229 Ry
     estimated scf accuracy    <          9.0E-11 Ry

     The total energy is the sum of the following terms:

     one-electron contribution =     -93.30613106 Ry
     hartree contribution      =      48.44021364 Ry
     xc contribution           =      -7.07509359 Ry
     ewald contribution        =      29.15132903 Ry
     smearing contrib. (-TS)   =       0.00001969 Ry

     convergence has been achieved in   7 iterations

     Writing output data file graphene.save

     init_run     :      0.50s CPU      0.54s WALL (       1 calls)
     electrons    :     14.98s CPU     15.30s WALL (       1 calls)

     Called by init_run:
     wfcinit      :      0.32s CPU      0.34s WALL (       1 calls)
     potinit      :      0.06s CPU      0.06s WALL (       1 calls)

     Called by electrons:
     c_bands      :     13.65s CPU     13.90s WALL (       7 calls)
     sum_band     :      1.16s CPU      1.17s WALL (       7 calls)
     v_of_rho     :      0.10s CPU      0.10s WALL (       8 calls)
     newd         :      0.05s CPU      0.05s WALL (       8 calls)
     mix_rho      :      0.01s CPU      0.01s WALL (       7 calls)

     Called by c_bands:
     init_us_2    :      0.01s CPU      0.10s WALL (    2535 calls)
     ccgdiagg     :     11.82s CPU     11.99s WALL (    1183 calls)
     wfcrot       :      2.05s CPU      2.07s WALL (    1183 calls)

     Called by sum_band:
     sum_band:bec :      0.00s CPU      0.01s WALL (    1183 calls)
     addusdens    :      0.06s CPU      0.06s WALL (       7 calls)

     Called by *cgdiagg:
     h_psi        :      2.81s CPU      8.58s WALL (   31323 calls)
     s_psi        :      0.02s CPU      0.27s WALL (   61463 calls)
     cdiaghg      :      0.02s CPU      0.07s WALL (    1183 calls)

     Called by h_psi:
     add_vuspsi   :      0.03s CPU      0.17s WALL (   31323 calls)
     h_1psi       :      1.02s CPU      7.04s WALL (   30140 calls)

     General routines
     calbec       :      1.37s CPU      1.75s WALL (   62646 calls)
     fft          :      0.10s CPU      0.11s WALL (     123 calls)
     ffts         :      0.00s CPU      0.00s WALL (      15 calls)
     fftw         :      2.24s CPU      7.23s WALL (   88672 calls)
     interpolate  :      0.01s CPU      0.01s WALL (      15 calls)
     davcio       :      0.00s CPU      0.00s WALL (     169 calls)

     Parallel routines
     fft_scatter  :      1.10s CPU      3.38s WALL (   88810 calls)

     PWSCF        :    15.87s CPU        21.52s WALL


   This run was terminated on:  10:43:48  20Apr2016            

=------------------------------------------------------------------------------=
   JOB DONE.
=------------------------------------------------------------------------------=
