
     Program PWSCF v.5.3.0 (svn rev. 11974) starts on 20Apr2016 at 10:45:46 

     This program is part of the open-source Quantum ESPRESSO suite
     for quantum simulation of materials; please cite
         "P. Giannozzi et al., J. Phys.:Condens. Matter 21 395502 (2009);
          URL http://www.quantum-espresso.org", 
     in publications or presentations arising from this work. More details at
     http://www.quantum-espresso.org/quote

     Parallel version (MPI), running on    20 processors
     R & G space division:  proc/nbgrp/npool/nimage =      20
     Reading input from graphene.scf9.in

     Current dimensions of program PWSCF are:
     Max number of different atomic species (ntypx) = 10
     Max number of k-points (npk) =  40000
     Max angular momentum in pseudopotentials (lmaxx) =  3
               file C.pbe-rrkjus.UPF: wavefunction(s)  2S 2P renormalized

     Subspace diagonalization in iterative solution of the eigenvalue problem:
     a serial algorithm will be used


     Parallelization info
     --------------------
     sticks:   dense  smooth     PW     G-vecs:    dense   smooth      PW
     Min          55      18      5                 5959     1132     195
     Max          56      19      7                 5968     1169     202
     Sum        1111     367    121               119327    22959    3987



     bravais-lattice index     =            4
     lattice parameter (alat)  =       4.7287  a.u.
     unit-cell volume          =     365.9367 (a.u.)^3
     number of atoms/cell      =            2
     number of atomic types    =            1
     number of electrons       =         8.00
     number of Kohn-Sham states=            8
     kinetic-energy cutoff     =      60.0000  Ry
     charge density cutoff     =     720.0000  Ry
     convergence threshold     =      1.0E-10
     mixing beta               =       0.7000
     number of iterations used =            8  plain     mixing
     Exchange-correlation      =  SLA  PW   PBE  PBE ( 1  4  3  4 0 0)

     celldm(1)=   4.728662  celldm(2)=   0.000000  celldm(3)=   3.996323
     celldm(4)=   0.000000  celldm(5)=   0.000000  celldm(6)=   0.000000

     crystal axes: (cart. coord. in units of alat)
               a(1) = (   1.000000   0.000000   0.000000 )  
               a(2) = (  -0.500000   0.866025   0.000000 )  
               a(3) = (   0.000000   0.000000   3.996323 )  

     reciprocal axes: (cart. coord. in units 2 pi/alat)
               b(1) = (  1.000000  0.577350 -0.000000 )  
               b(2) = (  0.000000  1.154701  0.000000 )  
               b(3) = (  0.000000 -0.000000  0.250230 )  


     PseudoPot. # 1 for C  read from file:
     ./C.pbe-rrkjus.UPF
     MD5 check sum: 00fb224312de0c5b6853bd333518df6f
     Pseudo is Ultrasoft, Zval =  4.0
     Generated by new atomic code, or converted to UPF format
     Using radial grid of  627 points,  4 beta functions with: 
                l(1) =   0
                l(2) =   0
                l(3) =   1
                l(4) =   1
     Q(r) pseudized with 0 coefficients 


     atomic species   valence    mass     pseudopotential
        C              4.00    12.01070     C ( 1.00)

     24 Sym. Ops., with inversion, found



   Cartesian axes

     site n.     atom                  positions (alat units)
         1           C   tau(   1) = (   0.0000000   0.5773503   1.9981617  )
         2           C   tau(   2) = (   0.5000000   0.2886751   1.9981617  )

     number of k points=   169  Methfessel-Paxton smearing, width (Ry)=  0.0200

     Number of k-points >= 100: set verbosity='high' to print them.

     Dense  grid:   119327 G-vectors     FFT dimensions: (  45,  45, 162)

     Smooth grid:    22959 G-vectors     FFT dimensions: (  24,  24,  96)

     Largest allocated arrays     est. size (Mb)     dimensions
        Kohn-Sham Wavefunctions         0.02 Mb     (     151,    8)
        NL pseudopotentials             0.04 Mb     (     151,   16)
        Each V/rho on FFT grid          0.28 Mb     (   18225)
        Each G-vector array             0.05 Mb     (    5967)
        G-vector shells                 0.02 Mb     (    2620)
     Largest temporary arrays     est. size (Mb)     dimensions
        Each subspace H/S matrix        0.00 Mb     (       8,    8)
        Each <psi_i|beta_j> matrix      0.00 Mb     (      16,    8)
        Arrays for rho mixing           2.22 Mb     (   18225,    8)

     Initial potential from superposition of free atoms

     starting charge    7.99989, renormalised to    8.00000

     negative rho (up, down):  2.751E-07 0.000E+00
     Starting wfc are    8 randomized atomic wfcs

     total cpu time spent up to now is        0.6 secs

     per-process dynamical memory:     7.6 Mb

     Self-consistent Calculation

     iteration #  1     ecut=    60.00 Ry     beta=0.70
     CG style diagonalization
     ethr =  1.00E-02,  avg # of iterations =  3.9

     total cpu time spent up to now is        3.0 secs

     total energy              =     -22.75567535 Ry
     Harris-Foulkes estimate   =     -22.86673732 Ry
     estimated scf accuracy    <       0.18674584 Ry

     iteration #  2     ecut=    60.00 Ry     beta=0.70
     CG style diagonalization
     ethr =  2.33E-03,  avg # of iterations =  3.9

     total cpu time spent up to now is        5.1 secs

     total energy              =     -22.78795390 Ry
     Harris-Foulkes estimate   =     -22.78857559 Ry
     estimated scf accuracy    <       0.00322046 Ry

     iteration #  3     ecut=    60.00 Ry     beta=0.70
     CG style diagonalization
     c_bands:  1 eigenvalues not converged
     c_bands:  1 eigenvalues not converged
     c_bands:  1 eigenvalues not converged
     c_bands:  1 eigenvalues not converged
     c_bands:  2 eigenvalues not converged
     c_bands:  1 eigenvalues not converged
     c_bands:  1 eigenvalues not converged
     ethr =  4.03E-05,  avg # of iterations =  5.6

     negative rho (up, down):  5.956E-07 0.000E+00

     total cpu time spent up to now is        8.2 secs

     total energy              =     -22.78865611 Ry
     Harris-Foulkes estimate   =     -22.78865663 Ry
     estimated scf accuracy    <       0.00019871 Ry

     iteration #  4     ecut=    60.00 Ry     beta=0.70
     CG style diagonalization
     c_bands:  1 eigenvalues not converged
     c_bands:  1 eigenvalues not converged
     c_bands:  1 eigenvalues not converged
     c_bands:  1 eigenvalues not converged
     ethr =  2.48E-06,  avg # of iterations =  4.3

     negative rho (up, down):  8.923E-07 0.000E+00

     total cpu time spent up to now is       10.6 secs

     total energy              =     -22.78867435 Ry
     Harris-Foulkes estimate   =     -22.78867515 Ry
     estimated scf accuracy    <       0.00000363 Ry

     iteration #  5     ecut=    60.00 Ry     beta=0.70
     CG style diagonalization
     c_bands:  1 eigenvalues not converged
     c_bands:  1 eigenvalues not converged
     ethr =  4.54E-08,  avg # of iterations =  3.5

     negative rho (up, down):  9.516E-07 0.000E+00

     total cpu time spent up to now is       12.4 secs

     total energy              =     -22.78867524 Ry
     Harris-Foulkes estimate   =     -22.78867524 Ry
     estimated scf accuracy    <       0.00000007 Ry

     iteration #  6     ecut=    60.00 Ry     beta=0.70
     CG style diagonalization
     ethr =  8.77E-10,  avg # of iterations =  3.5

     negative rho (up, down):  9.629E-07 0.000E+00

     total cpu time spent up to now is       14.3 secs

     total energy              =     -22.78867526 Ry
     Harris-Foulkes estimate   =     -22.78867527 Ry
     estimated scf accuracy    <          9.3E-09 Ry

     iteration #  7     ecut=    60.00 Ry     beta=0.70
     CG style diagonalization
     c_bands:  1 eigenvalues not converged
     ethr =  1.16E-10,  avg # of iterations =  3.3

     negative rho (up, down):  9.669E-07 0.000E+00

     total cpu time spent up to now is       16.1 secs

     End of self-consistent calculation

     Number of k-points >= 100: set verbosity='high' to print the bands.

     the Fermi energy is    -0.6588 ev

!    total energy              =     -22.78867526 Ry
     Harris-Foulkes estimate   =     -22.78867526 Ry
     estimated scf accuracy    <          7.5E-11 Ry

     The total energy is the sum of the following terms:

     one-electron contribution =     -87.96117563 Ry
     hartree contribution      =      45.67218632 Ry
     xc contribution           =      -6.95328572 Ry
     ewald contribution        =      26.45357502 Ry
     smearing contrib. (-TS)   =       0.00002475 Ry

     convergence has been achieved in   7 iterations

     Writing output data file graphene.save

     init_run     :      0.53s CPU      0.56s WALL (       1 calls)
     electrons    :     15.19s CPU     15.54s WALL (       1 calls)

     Called by init_run:
     wfcinit      :      0.33s CPU      0.35s WALL (       1 calls)
     potinit      :      0.07s CPU      0.07s WALL (       1 calls)

     Called by electrons:
     c_bands      :     13.77s CPU     14.05s WALL (       7 calls)
     sum_band     :      1.22s CPU      1.24s WALL (       7 calls)
     v_of_rho     :      0.12s CPU      0.13s WALL (       8 calls)
     newd         :      0.06s CPU      0.06s WALL (       8 calls)
     mix_rho      :      0.01s CPU      0.01s WALL (       7 calls)

     Called by c_bands:
     init_us_2    :      0.01s CPU      0.11s WALL (    2535 calls)
     ccgdiagg     :     11.87s CPU     12.06s WALL (    1183 calls)
     wfcrot       :      2.08s CPU      2.14s WALL (    1183 calls)

     Called by sum_band:
     sum_band:bec :      0.00s CPU      0.01s WALL (    1183 calls)
     addusdens    :      0.08s CPU      0.08s WALL (       7 calls)

     Called by *cgdiagg:
     h_psi        :      2.68s CPU      8.66s WALL (   30967 calls)
     s_psi        :      0.02s CPU      0.27s WALL (   60751 calls)
     cdiaghg      :      0.05s CPU      0.10s WALL (    1183 calls)

     Called by h_psi:
     add_vuspsi   :      0.03s CPU      0.17s WALL (   30967 calls)
     h_1psi       :      0.94s CPU      7.07s WALL (   29784 calls)

     General routines
     calbec       :      1.83s CPU      1.79s WALL (   61934 calls)
     fft          :      0.14s CPU      0.15s WALL (     123 calls)
     ffts         :      0.00s CPU      0.00s WALL (      15 calls)
     fftw         :      1.73s CPU      7.15s WALL (   87960 calls)
     interpolate  :      0.01s CPU      0.01s WALL (      15 calls)
     davcio       :      0.00s CPU      0.00s WALL (     169 calls)

     Parallel routines
     fft_scatter  :      0.88s CPU      3.33s WALL (   88098 calls)

     PWSCF        :    16.12s CPU        21.82s WALL


   This run was terminated on:  10:46: 8  20Apr2016            

=------------------------------------------------------------------------------=
   JOB DONE.
=------------------------------------------------------------------------------=
