
     Program PWSCF v.5.3.0 (svn rev. 11974) starts on 12Apr2016 at 16:20: 9 

     This program is part of the open-source Quantum ESPRESSO suite
     for quantum simulation of materials; please cite
         "P. Giannozzi et al., J. Phys.:Condens. Matter 21 395502 (2009);
          URL http://www.quantum-espresso.org", 
     in publications or presentations arising from this work. More details at
     http://www.quantum-espresso.org/quote

     Parallel version (MPI), running on    20 processors
     R & G space division:  proc/nbgrp/npool/nimage =      20
     Waiting for input...
     Reading input from standard input

     Current dimensions of program PWSCF are:
     Max number of different atomic species (ntypx) = 10
     Max number of k-points (npk) =  40000
     Max angular momentum in pseudopotentials (lmaxx) =  3
     Message from routine input:
     WARNING: "startingwfc" set to atomic+random may spoil restart

     Atomic positions and unit cell read from directory:
     ./graphene.save/

               file C.pbe-rrkjus.UPF: wavefunction(s)  2S 2P renormalized

     Subspace diagonalization in iterative solution of the eigenvalue problem:
     a serial algorithm will be used


     Parallelization info
     --------------------
     sticks:   dense  smooth     PW     G-vecs:    dense   smooth      PW
     Min          53      18      5                 5769     1108     185
     Max          54      19      6                 5788     1143     200
     Sum        1069     361    109               115541    22353    3857



     bravais-lattice index     =            4
     lattice parameter (alat)  =       4.6531  a.u.
     unit-cell volume          =     354.3310 (a.u.)^3
     number of atoms/cell      =            2
     number of atomic types    =            1
     number of electrons       =         8.00
     number of Kohn-Sham states=            8
     kinetic-energy cutoff     =      60.0000  Ry
     charge density cutoff     =     720.0000  Ry
     Exchange-correlation      =  SLA  PW   PBE  PBE ( 1  4  3  4 0 0)

     celldm(1)=   4.653073  celldm(2)=   0.000000  celldm(3)=   4.061244
     celldm(4)=   0.000000  celldm(5)=   0.000000  celldm(6)=   0.000000

     crystal axes: (cart. coord. in units of alat)
               a(1) = (   1.000000   0.000000   0.000000 )  
               a(2) = (  -0.500000   0.866025   0.000000 )  
               a(3) = (   0.000000   0.000000   4.061244 )  

     reciprocal axes: (cart. coord. in units 2 pi/alat)
               b(1) = (  1.000000  0.577350 -0.000000 )  
               b(2) = (  0.000000  1.154701  0.000000 )  
               b(3) = (  0.000000 -0.000000  0.246230 )  


     PseudoPot. # 1 for C  read from file:
     ./C.pbe-rrkjus.UPF
     MD5 check sum: 00fb224312de0c5b6853bd333518df6f
     Pseudo is Ultrasoft, Zval =  4.0
     Generated by new atomic code, or converted to UPF format
     Using radial grid of  627 points,  4 beta functions with: 
                l(1) =   0
                l(2) =   0
                l(3) =   1
                l(4) =   1
     Q(r) pseudized with 0 coefficients 


     atomic species   valence    mass     pseudopotential
        C              4.00    12.01070     C ( 1.00)

     24 Sym. Ops., with inversion, found



   Cartesian axes

     site n.     atom                  positions (alat units)
         1           C   tau(   1) = (   0.0000000   0.5773503   2.0306218  )
         2           C   tau(   2) = (   0.5000000   0.2886751   2.0306218  )

     number of k points=    61  Methfessel-Paxton smearing, width (Ry)=  0.0200
                       cart. coord. in units 2pi/alat
        k(    1) = (   0.0000000   0.0000000   0.0000000), wk =   0.0327869
        k(    2) = (   0.0333333   0.0000000   0.0000000), wk =   0.0327869
        k(    3) = (   0.0666667   0.0000000   0.0000000), wk =   0.0327869
        k(    4) = (   0.1000000   0.0000000   0.0000000), wk =   0.0327869
        k(    5) = (   0.1333333   0.0000000   0.0000000), wk =   0.0327869
        k(    6) = (   0.1666667   0.0000000   0.0000000), wk =   0.0327869
        k(    7) = (   0.2000000   0.0000000   0.0000000), wk =   0.0327869
        k(    8) = (   0.2333333   0.0000000   0.0000000), wk =   0.0327869
        k(    9) = (   0.2666667   0.0000000   0.0000000), wk =   0.0327869
        k(   10) = (   0.3000000   0.0000000   0.0000000), wk =   0.0327869
        k(   11) = (   0.3333333   0.0000000   0.0000000), wk =   0.0327869
        k(   12) = (   0.3666667   0.0000000   0.0000000), wk =   0.0327869
        k(   13) = (   0.4000000   0.0000000   0.0000000), wk =   0.0327869
        k(   14) = (   0.4333333   0.0000000   0.0000000), wk =   0.0327869
        k(   15) = (   0.4666667   0.0000000   0.0000000), wk =   0.0327869
        k(   16) = (   0.5000000   0.0000000   0.0000000), wk =   0.0327869
        k(   17) = (   0.5333333   0.0000000   0.0000000), wk =   0.0327869
        k(   18) = (   0.5666667   0.0000000   0.0000000), wk =   0.0327869
        k(   19) = (   0.6000000   0.0000000   0.0000000), wk =   0.0327869
        k(   20) = (   0.6333333   0.0000000   0.0000000), wk =   0.0327869
        k(   21) = (   0.6666667   0.0000000   0.0000000), wk =   0.0327869
        k(   22) = (   0.6583333   0.0144338   0.0000000), wk =   0.0327869
        k(   23) = (   0.6500000   0.0288675   0.0000000), wk =   0.0327869
        k(   24) = (   0.6416667   0.0433013   0.0000000), wk =   0.0327869
        k(   25) = (   0.6333333   0.0577350   0.0000000), wk =   0.0327869
        k(   26) = (   0.6250000   0.0721688   0.0000000), wk =   0.0327869
        k(   27) = (   0.6166667   0.0866025   0.0000000), wk =   0.0327869
        k(   28) = (   0.6083333   0.1010363   0.0000000), wk =   0.0327869
        k(   29) = (   0.6000000   0.1154700   0.0000000), wk =   0.0327869
        k(   30) = (   0.5916667   0.1299038   0.0000000), wk =   0.0327869
        k(   31) = (   0.5833333   0.1443375   0.0000000), wk =   0.0327869
        k(   32) = (   0.5750000   0.1587713   0.0000000), wk =   0.0327869
        k(   33) = (   0.5666667   0.1732050   0.0000000), wk =   0.0327869
        k(   34) = (   0.5583333   0.1876388   0.0000000), wk =   0.0327869
        k(   35) = (   0.5500000   0.2020725   0.0000000), wk =   0.0327869
        k(   36) = (   0.5416667   0.2165063   0.0000000), wk =   0.0327869
        k(   37) = (   0.5333333   0.2309400   0.0000000), wk =   0.0327869
        k(   38) = (   0.5250000   0.2453738   0.0000000), wk =   0.0327869
        k(   39) = (   0.5166667   0.2598075   0.0000000), wk =   0.0327869
        k(   40) = (   0.5083333   0.2742413   0.0000000), wk =   0.0327869
        k(   41) = (   0.5000000   0.2886750   0.0000000), wk =   0.0327869
        k(   42) = (   0.4750000   0.2742412   0.0000000), wk =   0.0327869
        k(   43) = (   0.4500000   0.2598075   0.0000000), wk =   0.0327869
        k(   44) = (   0.4250000   0.2453738   0.0000000), wk =   0.0327869
        k(   45) = (   0.4000000   0.2309400   0.0000000), wk =   0.0327869
        k(   46) = (   0.3750000   0.2165063   0.0000000), wk =   0.0327869
        k(   47) = (   0.3500000   0.2020725   0.0000000), wk =   0.0327869
        k(   48) = (   0.3250000   0.1876388   0.0000000), wk =   0.0327869
        k(   49) = (   0.3000000   0.1732050   0.0000000), wk =   0.0327869
        k(   50) = (   0.2750000   0.1587713   0.0000000), wk =   0.0327869
        k(   51) = (   0.2500000   0.1443375   0.0000000), wk =   0.0327869
        k(   52) = (   0.2250000   0.1299037   0.0000000), wk =   0.0327869
        k(   53) = (   0.2000000   0.1154700   0.0000000), wk =   0.0327869
        k(   54) = (   0.1750000   0.1010362   0.0000000), wk =   0.0327869
        k(   55) = (   0.1500000   0.0866025   0.0000000), wk =   0.0327869
        k(   56) = (   0.1250000   0.0721688   0.0000000), wk =   0.0327869
        k(   57) = (   0.1000000   0.0577350   0.0000000), wk =   0.0327869
        k(   58) = (   0.0750000   0.0433012   0.0000000), wk =   0.0327869
        k(   59) = (   0.0500000   0.0288675   0.0000000), wk =   0.0327869
        k(   60) = (   0.0250000   0.0144337   0.0000000), wk =   0.0327869
        k(   61) = (   0.0000000   0.0000000   0.0000000), wk =   0.0327869

     Dense  grid:   115541 G-vectors     FFT dimensions: (  40,  40, 162)

     Smooth grid:    22353 G-vectors     FFT dimensions: (  24,  24,  96)

     Largest allocated arrays     est. size (Mb)     dimensions
        Kohn-Sham Wavefunctions         0.02 Mb     (     137,    8)
        NL pseudopotentials             0.03 Mb     (     137,   16)
        Each V/rho on FFT grid          0.22 Mb     (   14400)
        Each G-vector array             0.04 Mb     (    5788)
        G-vector shells                 0.02 Mb     (    2551)
     Largest temporary arrays     est. size (Mb)     dimensions
        Each subspace H/S matrix        0.00 Mb     (       8,    8)
        Each <psi_i|beta_j> matrix      0.00 Mb     (      16,    8)

     The potential is recalculated from file :
     ./graphene.save/charge-density.dat


     negative rho (up, down):  1.010E-06 0.000E+00
     Starting wfc are    8 randomized atomic wfcs

     Band Structure Calculation
     CG style diagonalization
     c_bands:  1 eigenvalues not converged

     ethr =  1.25E-12,  avg # of iterations = 34.1

     total cpu time spent up to now is        7.5 secs

     End of band structure calculation

          k = 0.0000 0.0000 0.0000 (  2759 PWs)   bands (ev):

   -19.9759  -8.0887  -3.5255  -3.5255   2.6730   4.2599   5.4976   7.8484

          k = 0.0333 0.0000 0.0000 (  2755 PWs)   bands (ev):

   -19.9562  -8.0651  -3.6065  -3.5690   2.6999   4.2866   5.5241   7.8620

          k = 0.0667 0.0000 0.0000 (  2757 PWs)   bands (ev):

   -19.8971  -7.9943  -3.8406  -3.6980   2.7806   4.3665   5.6035   7.9039

          k = 0.1000 0.0000 0.0000 (  2767 PWs)   bands (ev):

   -19.7987  -7.8766  -4.2042  -3.9081   2.9150   4.4997   5.7358   7.9767

          k = 0.1333 0.0000 0.0000 (  2773 PWs)   bands (ev):

   -19.6611  -7.7123  -4.6676  -4.1922   3.1032   4.6858   5.9213   8.0841

          k = 0.1667 0.0000 0.0000 (  2777 PWs)   bands (ev):

   -19.4846  -7.5020  -5.2016  -4.5414   3.3452   4.9248   6.1601   8.2296

          k = 0.2000 0.0000 0.0000 (  2783 PWs)   bands (ev):

   -19.2692  -7.2464  -5.7813  -4.9456   3.6410   5.2161   6.4521   8.4163

          k = 0.2333 0.0000 0.0000 (  2779 PWs)   bands (ev):

   -19.0155  -6.9464  -6.3872  -5.3939   3.9905   5.5593   6.7974   8.1262

          k = 0.2667 0.0000 0.0000 (  2772 PWs)   bands (ev):

   -18.7238  -7.0044  -6.6032  -5.8758   4.3935   5.9535   7.1958   7.4170

          k = 0.3000 0.0000 0.0000 (  2788 PWs)   bands (ev):

   -18.3946  -7.6217  -6.3811  -6.2185   4.8498   6.3975   6.6835   7.6469

          k = 0.3333 0.0000 0.0000 (  2782 PWs)   bands (ev):

   -18.0286  -8.2310  -6.9005  -5.7942   5.3592   5.9390   6.8893   8.1504

          k = 0.3667 0.0000 0.0000 (  2782 PWs)   bands (ev):

   -17.6268  -8.8260  -7.4255  -5.3328   5.1943   5.9212   7.4259   8.7053

          k = 0.4000 0.0000 0.0000 (  2784 PWs)   bands (ev):

   -17.1902  -9.4021  -7.9486  -4.8375   4.4586   6.5351   8.0017   9.3103

          k = 0.4333 0.0000 0.0000 (  2776 PWs)   bands (ev):

   -16.7205  -9.9559  -8.4628  -4.3123   3.7392   7.2002   8.6060   9.9624

          k = 0.4667 0.0000 0.0000 (  2770 PWs)   bands (ev):

   -16.2196 -10.4847  -8.9620  -3.7625   3.0422   7.9148   9.2165  10.6558

          k = 0.5000 0.0000 0.0000 (  2770 PWs)   bands (ev):

   -15.6908 -10.9865  -9.4398  -3.1947   2.3725   8.6764   9.7822  11.3721

          k = 0.5333 0.0000 0.0000 (  2776 PWs)   bands (ev):

   -15.1389 -11.4598  -9.8893  -2.6171   1.7342   9.4804  10.1969  12.0442

          k = 0.5667 0.0000 0.0000 (  2772 PWs)   bands (ev):

   -14.5719 -11.9033 -10.3010  -2.0402   1.1303  10.3170  10.3532  12.5006

          k = 0.6000 0.0000 0.0000 (  2772 PWs)   bands (ev):

   -14.0053 -12.3161 -10.6595  -1.4766   0.5638  10.3146  11.1625  12.5686

          k = 0.6333 0.0000 0.0000 (  2778 PWs)   bands (ev):

   -13.4724 -12.6974 -10.9324  -0.9410   0.0366  10.2296  11.9448  12.5455

          k = 0.6667 0.0000 0.0000 (  2778 PWs)   bands (ev):

   -13.0469 -13.0469 -11.0483  -0.4492  -0.4492  10.1901  12.4174  12.4174

          k = 0.6583 0.0144 0.0000 (  2784 PWs)   bands (ev):

   -13.2095 -12.9106 -11.0123  -0.6763  -0.2245  10.2017  12.3182  12.4322

          k = 0.6500 0.0289 0.0000 (  2780 PWs)   bands (ev):

   -13.3639 -12.8388 -10.9011  -0.8924  -0.0161  10.2380  12.2017  12.3416

          k = 0.6417 0.0433 0.0000 (  2764 PWs)   bands (ev):

   -13.5102 -12.8256 -10.7211  -1.0976   0.1748  10.2999  12.0729  12.1886

          k = 0.6333 0.0577 0.0000 (  2764 PWs)   bands (ev):

   -13.6482 -12.8558 -10.4887  -1.2916   0.3472  10.3870  11.9370  11.9731

          k = 0.6250 0.0722 0.0000 (  2778 PWs)   bands (ev):

   -13.7780 -12.9134 -10.2210  -1.4745   0.5009  10.4974  11.6664  11.7982

          k = 0.6167 0.0866 0.0000 (  2780 PWs)   bands (ev):

   -13.8995 -12.9863  -9.9314  -1.6459   0.6358  10.6279  11.2774  11.6599

          k = 0.6083 0.1010 0.0000 (  2780 PWs)   bands (ev):

   -14.0127 -13.0665  -9.6296  -1.8059   0.7525  10.7740  10.8463  11.5248

          k = 0.6000 0.1155 0.0000 (  2764 PWs)   bands (ev):

   -14.1176 -13.1487  -9.3226  -1.9544   0.8521  10.3996  10.9295  11.3951

          k = 0.5917 0.1299 0.0000 (  2764 PWs)   bands (ev):

   -14.2142 -13.2297  -9.0159  -2.0913   0.9357   9.9524  11.0875  11.2723

          k = 0.5833 0.1443 0.0000 (  2774 PWs)   bands (ev):

   -14.3024 -13.3072  -8.7140  -2.2165   1.0050   9.5142  11.1575  11.2403

          k = 0.5750 0.1588 0.0000 (  2794 PWs)   bands (ev):

   -14.3823 -13.3798  -8.4215  -2.3299   1.0614   9.0927  11.0518  11.2280

          k = 0.5667 0.1732 0.0000 (  2794 PWs)   bands (ev):

   -14.4537 -13.4464  -8.1424  -2.4316   1.1068   8.6944  10.9559  11.1240

          k = 0.5583 0.1876 0.0000 (  2790 PWs)   bands (ev):

   -14.5168 -13.5064  -7.8811  -2.5214   1.1426   8.3251  10.8702  11.0317

          k = 0.5500 0.2021 0.0000 (  2798 PWs)   bands (ev):

   -14.5715 -13.5591  -7.6420  -2.5993   1.1705   7.9905  10.7953  10.9513

          k = 0.5417 0.2165 0.0000 (  2796 PWs)   bands (ev):

   -14.6178 -13.6042  -7.4294  -2.6653   1.1917   7.6958  10.7315  10.8831

          k = 0.5333 0.2309 0.0000 (  2784 PWs)   bands (ev):

   -14.6557 -13.6415  -7.2479  -2.7193   1.2074   7.4462  10.6789  10.8271

          k = 0.5250 0.2454 0.0000 (  2792 PWs)   bands (ev):

   -14.6851 -13.6707  -7.1015  -2.7613   1.2186   7.2464  10.6379  10.7834

          k = 0.5167 0.2598 0.0000 (  2796 PWs)   bands (ev):

   -14.7062 -13.6916  -6.9940  -2.7914   1.2261   7.1005  10.6085  10.7521

          k = 0.5083 0.2742 0.0000 (  2796 PWs)   bands (ev):

   -14.7188 -13.7042  -6.9283  -2.8094   1.2304   7.0116  10.5908  10.7334

          k = 0.5000 0.2887 0.0000 (  2804 PWs)   bands (ev):

   -14.7230 -13.7084  -6.9062  -2.8154   1.2318   6.9817  10.5849  10.7271

          k = 0.4750 0.2742 0.0000 (  2806 PWs)   bands (ev):

   -14.9537 -13.4558  -6.8914  -2.9109   1.3504   6.9889   9.8943  11.3089

          k = 0.4500 0.2598 0.0000 (  2796 PWs)   bands (ev):

   -15.3839 -12.9600  -6.8474  -3.1680   1.6764   7.0100   9.1704  10.6288

          k = 0.4250 0.2454 0.0000 (  2778 PWs)   bands (ev):

   -15.8419 -12.3933  -6.7744  -3.5278   2.1500   7.0438   8.4820   9.9672

          k = 0.4000 0.2309 0.0000 (  2776 PWs)   bands (ev):

   -16.2916 -11.7926  -6.6730  -3.9398   2.7188   7.0852   7.8357   9.3347

          k = 0.3750 0.2165 0.0000 (  2796 PWs)   bands (ev):

   -16.7229 -11.1696  -6.5440  -4.3717   3.3476   7.0646   7.3009   8.7352

          k = 0.3500 0.2021 0.0000 (  2786 PWs)   bands (ev):

   -17.1318 -10.5300  -6.3884  -4.8038   4.0134   6.5979   7.2611   8.1713

          k = 0.3250 0.1876 0.0000 (  2782 PWs)   bands (ev):

   -17.5160  -9.8784  -6.2078  -5.2245   4.6992   6.0673   7.3313   7.6456

          k = 0.3000 0.1732 0.0000 (  2770 PWs)   bands (ev):

   -17.8744  -9.2191  -6.0040  -5.6264   5.3892   5.5691   7.1629   7.4102

          k = 0.2750 0.1588 0.0000 (  2774 PWs)   bands (ev):

   -18.2060  -8.5567  -6.0047  -5.7794   5.1085   6.0440   6.7527   7.4739

          k = 0.2500 0.1443 0.0000 (  2772 PWs)   bands (ev):

   -18.5103  -7.8966  -6.3562  -5.5370   4.6870   6.1910   6.8786   7.3944

          k = 0.2250 0.1299 0.0000 (  2792 PWs)   bands (ev):

   -18.7867  -7.2451  -6.6785  -5.2806   4.3051   5.8586   7.0855   7.5031

          k = 0.2000 0.1155 0.0000 (  2786 PWs)   bands (ev):

   -19.0349  -6.9699  -6.6098  -5.0149   3.9629   5.5301   6.7616   7.8240

          k = 0.1750 0.1010 0.0000 (  2782 PWs)   bands (ev):

   -19.2545  -7.2292  -5.9997  -4.7460   3.6608   5.2351   6.4682   7.8831

          k = 0.1500 0.0866 0.0000 (  2798 PWs)   bands (ev):

   -19.4453  -7.4555  -5.4256  -4.4810   3.3988   4.9775   6.2116   7.9243

          k = 0.1250 0.0722 0.0000 (  2790 PWs)   bands (ev):

   -19.6071  -7.6480  -4.9001  -4.2286   3.1771   4.7588   5.9937   7.9424

          k = 0.1000 0.0577 0.0000 (  2774 PWs)   bands (ev):

   -19.7397  -7.8061  -4.4379  -3.9990   2.9956   4.5795   5.8152   7.9372

          k = 0.0750 0.0433 0.0000 (  2770 PWs)   bands (ev):

   -19.8430  -7.9295  -4.0547  -3.8033   2.8545   4.4398   5.6762   7.9141

          k = 0.0500 0.0289 0.0000 (  2756 PWs)   bands (ev):

   -19.9168  -8.0179  -3.7662  -3.6530   2.7537   4.3399   5.5770   7.8836

          k = 0.0250 0.0144 0.0000 (  2755 PWs)   bands (ev):

   -19.9611  -8.0710  -3.5865  -3.5580   2.6932   4.2799   5.5175   7.8582

          k = 0.0000 0.0000 0.0000 (  2759 PWs)   bands (ev):

   -19.9759  -8.0887  -3.5255  -3.5255   2.6730   4.2599   5.4976   7.8484

     Writing output data file graphene.save

     init_run     :      0.16s CPU      0.20s WALL (       1 calls)
     electrons    :      6.89s CPU      7.08s WALL (       1 calls)

     Called by init_run:
     wfcinit      :      0.00s CPU      0.00s WALL (       1 calls)
     potinit      :      0.03s CPU      0.04s WALL (       1 calls)

     Called by electrons:
     c_bands      :      6.89s CPU      7.08s WALL (       1 calls)
     v_of_rho     :      0.01s CPU      0.01s WALL (       1 calls)
     newd         :      0.01s CPU      0.01s WALL (       1 calls)

     Called by c_bands:
     init_us_2    :      0.00s CPU      0.00s WALL (      61 calls)
     ccgdiagg     :      6.45s CPU      6.63s WALL (     195 calls)
     wfcrot       :      0.40s CPU      0.37s WALL (     195 calls)

     Called by sum_band:

     Called by *cgdiagg:
     h_psi        :      2.13s CPU      3.71s WALL (   15381 calls)
     s_psi        :      0.05s CPU      0.13s WALL (   30567 calls)
     cdiaghg      :      0.03s CPU      0.03s WALL (     195 calls)

     Called by h_psi:
     add_vuspsi   :      0.05s CPU      0.07s WALL (   15381 calls)
     h_1psi       :      1.83s CPU      3.55s WALL (   15186 calls)

     General routines
     calbec       :      0.60s CPU      0.82s WALL (   30567 calls)
     fft          :      0.01s CPU      0.01s WALL (      12 calls)
     ffts         :      0.00s CPU      0.00s WALL (       1 calls)
     fftw         :      1.44s CPU      2.76s WALL (   33492 calls)
     interpolate  :      0.00s CPU      0.00s WALL (       1 calls)
     davcio       :      0.02s CPU      0.03s WALL (      61 calls)

     Parallel routines
     fft_scatter  :      0.70s CPU      1.28s WALL (   33505 calls)

     PWSCF        :     7.45s CPU         8.03s WALL


   This run was terminated on:  16:20:17  12Apr2016            

=------------------------------------------------------------------------------=
   JOB DONE.
=------------------------------------------------------------------------------=
